 Gaussian 09, Revision C.01,
 Gaussian 09:  EM64L-G09RevC.01 23-Sep-2011

 ----------------------------------------------------------------------
 # nmr=(giao,spinspin) b3lyp/6-31g(d) scrf=(iefpcm,solvent=chloroform)
 geom=connectivity
 ----------------------------------------------------------------------

 99/9=1/99;
 -------------------
 Title Card Required
 -------------------
 Charge =  0 Multiplicity = 1

                         Standard orientation:
 ---------------------------------------------------------------------
 Center     Atomic      Atomic             Coordinates (Angstroms)
 Number     Number       Type             X           Y           Z
 ---------------------------------------------------------------------
      1          8           0       -2.547545    2.139059    0.472310
      2          8           0        2.015408    3.324289    0.213156
      3          7           0        1.207610    1.203922    0.478894
      4          7           0       -1.350394   -2.624460    0.301178
      5          6           0       -0.258837   -2.073956   -0.558021
      6          6           0       -0.824223   -1.406962   -1.808433
      7          6           0       -1.741283   -0.250780   -1.378644
      8          6           0       -0.819735    0.828965   -0.783392
      9          6           0        0.003153    0.334416    0.415455
     10          6           0        2.358372    0.448322    0.162421
     11          6           0        3.667689    0.888405   -0.010558
     12          6           0        4.632616   -0.056196   -0.360560
     13          6           0        4.303015   -1.398582   -0.525823
     14          6           0        2.988069   -1.825141   -0.331972
     15          6           0        2.015427   -0.899636    0.012625
     16          6           0        0.561728   -1.122705    0.360284
     17          6           0        0.390886   -1.834862    1.723978
     18          6           0       -1.067936   -2.282629    1.709808
     19          6           0       -2.708975   -2.252045   -0.131301
     20          6           0       -2.815469   -0.775379   -0.431910
     21          6           0       -3.718174    0.023460    0.134879
     22          6           0       -3.726395    1.516213   -0.058936
     23          6           0       -1.423939    2.193179   -0.407936
     24          6           0       -0.372897    3.059448    0.332496
     25          6           0        1.064718    2.558120    0.325331
     26          1           0        0.399932   -2.896344   -0.855386
     27          1           0       -1.364146   -2.140645   -2.409934
     28          1           0       -0.007016   -1.035292   -2.430851
     29          1           0       -2.229948    0.177326   -2.261725
     30          1           0       -0.101863    1.055799   -1.581061
     31          1           0       -0.582210    0.470722    1.326014
     32          1           0        3.918694    1.929549    0.116264
     33          1           0        5.656588    0.267474   -0.505165
     34          1           0        5.068478   -2.115052   -0.797816
     35          1           0        2.736463   -2.873299   -0.445917
     36          1           0        1.059165   -2.698455    1.760657
     37          1           0        0.631843   -1.189746    2.570301
     38          1           0       -1.243126   -3.142405    2.361743
     39          1           0       -1.719677   -1.470258    2.058429
     40          1           0       -3.410692   -2.541912    0.651788
     41          1           0       -2.971493   -2.840572   -1.016009
     42          1           0       -4.455619   -0.395106    0.813636
     43          1           0       -3.834304    1.785629   -1.118252
     44          1           0       -4.559845    1.966160    0.480526
     45          1           0       -1.736135    2.699031   -1.329897
     46          1           0       -0.354638    4.078330   -0.048526
     47          1           0       -0.690723    3.116119    1.378208
 ---------------------------------------------------------------------

 SCF Done:  E(RB3LYP) =  -1073.41812600     A.U. after   13 cycles

      1  O    Isotropic =   271.7782   Anisotropy =    88.5986

      2  O    Isotropic =   -60.2601   Anisotropy =   585.6998

      3  N    Isotropic =    99.5116   Anisotropy =    75.9053

      4  N    Isotropic =   212.1295   Anisotropy =    59.6224

      5  C    Isotropic =   129.1697   Anisotropy =    36.1109

      6  C    Isotropic =   161.8100   Anisotropy =    12.2993

      7  C    Isotropic =   156.4954   Anisotropy =    12.5608

      8  C    Isotropic =   141.9406   Anisotropy =    20.8924

      9  C    Isotropic =   128.7456   Anisotropy =    37.2361

     10  C    Isotropic =    54.0939   Anisotropy =   116.5220

     11  C    Isotropic =    80.4997   Anisotropy =   148.0635

     12  C    Isotropic =    68.7101   Anisotropy =   164.6559

     13  C    Isotropic =    73.6114   Anisotropy =   158.8344

     14  C    Isotropic =    74.3786   Anisotropy =   160.6711

     15  C    Isotropic =    63.2083   Anisotropy =   136.3151

     16  C    Isotropic =   136.1545   Anisotropy =    26.7444

     17  C    Isotropic =   145.8989   Anisotropy =    41.1805

     18  C    Isotropic =   140.2760   Anisotropy =    53.4700

     19  C    Isotropic =   138.2621   Anisotropy =    26.3849

     20  C    Isotropic =    53.0717   Anisotropy =   151.9644

     21  C    Isotropic =    68.0509   Anisotropy =   121.2985

     22  C    Isotropic =   126.3858   Anisotropy =    66.7060

     23  C    Isotropic =   113.1331   Anisotropy =    50.7197

     24  C    Isotropic =   147.6137   Anisotropy =    37.1484

     25  C    Isotropic =    30.1363   Anisotropy =   102.0022

     26  H    Isotropic =    28.4108   Anisotropy =     9.2361

     27  H    Isotropic =    30.0464   Anisotropy =    10.3092

     28  H    Isotropic =    30.8888   Anisotropy =     6.5379

     29  H    Isotropic =    29.3171   Anisotropy =     8.1601

     30  H    Isotropic =    31.1462   Anisotropy =     2.6553

     31  H    Isotropic =    28.3910   Anisotropy =     3.5389

     32  H    Isotropic =    24.4189   Anisotropy =     8.6449

     33  H    Isotropic =    25.1337   Anisotropy =     4.0379

     34  H    Isotropic =    25.2897   Anisotropy =     4.6598

     35  H    Isotropic =    25.1913   Anisotropy =     9.7163

     36  H    Isotropic =    30.3646   Anisotropy =     9.0261

     37  H    Isotropic =    30.4607   Anisotropy =     6.8958

     38  H    Isotropic =    29.2821   Anisotropy =    11.0013

     39  H    Isotropic =    29.3293   Anisotropy =     5.6319

     40  H    Isotropic =    29.7053   Anisotropy =     8.2259

     41  H    Isotropic =    28.6092   Anisotropy =     9.3807

     42  H    Isotropic =    26.4581   Anisotropy =     5.2789

     43  H    Isotropic =    28.2868   Anisotropy =     7.0905

     44  H    Isotropic =    28.3428   Anisotropy =     9.5473

     45  H    Isotropic =    28.0755   Anisotropy =     6.0165

     46  H    Isotropic =    29.5537   Anisotropy =     7.8159

     47  H    Isotropic =    29.6635   Anisotropy =     4.7163

 The electronic state is 1-A.
 Alpha  occ. eigenvalues --  -19.15151 -19.11885 -14.37432 -14.32163 -10.29121
 Alpha  occ. eigenvalues --  -10.24691 -10.23400 -10.23106 -10.22796 -10.21717
 Alpha  occ. eigenvalues --  -10.21031 -10.20924 -10.20445 -10.20096 -10.19846
 Alpha  occ. eigenvalues --  -10.19314 -10.19303 -10.19208 -10.19066 -10.18806
 Alpha  occ. eigenvalues --  -10.18710 -10.18573 -10.18533 -10.18489 -10.18043
 Alpha  occ. eigenvalues --   -1.04117  -1.03147  -0.96576  -0.93270  -0.85676
 Alpha  occ. eigenvalues --   -0.83502  -0.82171  -0.80475  -0.77039  -0.75006
 Alpha  occ. eigenvalues --   -0.74573  -0.73398  -0.71473  -0.70135  -0.66322
 Alpha  occ. eigenvalues --   -0.64616  -0.63232  -0.62885  -0.60367  -0.58214
 Alpha  occ. eigenvalues --   -0.57357  -0.55554  -0.55047  -0.51608  -0.51148
 Alpha  occ. eigenvalues --   -0.50500  -0.49525  -0.48565  -0.48382  -0.47132
 Alpha  occ. eigenvalues --   -0.46411  -0.46163  -0.45371  -0.44742  -0.44582
 Alpha  occ. eigenvalues --   -0.43746  -0.42987  -0.41375  -0.41132  -0.40246
 Alpha  occ. eigenvalues --   -0.39788  -0.39436  -0.38881  -0.38660  -0.37772
 Alpha  occ. eigenvalues --   -0.37265  -0.36719  -0.36436  -0.36021  -0.35473
 Alpha  occ. eigenvalues --   -0.35222  -0.34040  -0.33162  -0.32795  -0.32665
 Alpha  occ. eigenvalues --   -0.31591  -0.30977  -0.29336  -0.26245  -0.25301
 Alpha  occ. eigenvalues --   -0.24755  -0.24353  -0.21356  -0.20363
 Alpha virt. eigenvalues --   -0.01095  -0.00373   0.00274   0.03867   0.07942
 Alpha virt. eigenvalues --    0.08892   0.09908   0.10434   0.10731   0.11180
 Alpha virt. eigenvalues --    0.11422   0.11858   0.13108   0.13316   0.14233

 Mulliken atomic charges:
              1
     1  O   -0.505644
     2  O   -0.543615
     3  N   -0.549664
     4  N   -0.429640
     5  C    0.041282
     6  C   -0.306275
     7  C   -0.189601
     8  C   -0.107309
     9  C   -0.026969
    10  C    0.310448
    11  C   -0.169510
    12  C   -0.154819
    13  C   -0.143002
    14  C   -0.227072
    15  C    0.091934
    16  C   -0.023886
    17  C   -0.301543
    18  C   -0.122739
    19  C   -0.225902
    20  C    0.184905
    21  C   -0.207995
    22  C   -0.076919
    23  C    0.144677
    24  C   -0.398975
    25  C    0.568322
    26  H    0.137345
    27  H    0.156718
    28  H    0.153764
    29  H    0.151953
    30  H    0.147374
    31  H    0.170292
    32  H    0.166407
    33  H    0.140954
    34  H    0.137274
    35  H    0.143169
    36  H    0.154926
    37  H    0.157937
    38  H    0.146470
    39  H    0.137573
    40  H    0.157971
    41  H    0.156097
    42  H    0.136932
    43  H    0.142201
    44  H    0.155633
    45  H    0.137603
    46  H    0.182009
    47  H    0.198909
 Sum of Mulliken atomic charges =   0.00000

 Dipole moment (field-independent basis, Debye):
    X=             -3.6631    Y=             -3.1716    Z=             -1.3894  Tot=              5.0406
 Quadrupole moment (field-independent basis, Debye-Ang):
   XX=           -140.6713   YY=           -156.3505   ZZ=           -141.0307
   XY=            -11.2767   XZ=              0.4939   YZ=             -2.4771

 Normal termination of Gaussian 09 at Thu Nov 28 05:25:53 2013.
